<VTKFile type="UnstructuredGrid" version="0.1" byte_order="BigEndian">
  <UnstructuredGrid>
    <Piece NumberOfPoints="2500" NumberOfCells="2401">
      <Points>
        <DataArray type="Float32" NumberOfComponents="3" Format="ascii">
       -1 -1 0
       1 -1 0
       1 1 0
       -1 1 0
       -0.959184 -1 0
       -0.918367 -1 0
       -0.877551 -1 0
       -0.836735 -1 0
       -0.795918 -1 0
       -0.755102 -1 0
       -0.714286 -1 0
       -0.673469 -1 0
       -0.632653 -1 0
       -0.591837 -1 0
       -0.55102 -1 0
       -0.510204 -1 0
       -0.469388 -1 0
       -0.428571 -1 0
       -0.387755 -1 0
       -0.346939 -1 0
       -0.306122 -1 0
       -0.265306 -1 0
       -0.22449 -1 0
       -0.183673 -1 0
       -0.142857 -1 0
       -0.102041 -1 0
       -0.0612245 -1 0
       -0.0204082 -1 0
       0.0204082 -1 0
       0.0612245 -1 0
       0.102041 -1 0
       0.142857 -1 0
       0.183673 -1 0
       0.22449 -1 0
       0.265306 -1 0
       0.306122 -1 0
       0.346939 -1 0
       0.387755 -1 0
       0.428571 -1 0
       0.469388 -1 0
       0.510204 -1 0
       0.55102 -1 0
       0.591837 -1 0
       0.632653 -1 0
       0.673469 -1 0
       0.714286 -1 0
       0.755102 -1 0
       0.795918 -1 0
       0.836735 -1 0
       0.877551 -1 0
       0.918367 -1 0
       0.959184 -1 0
       1 -0.959184 0
       1 -0.918367 0
       1 -0.877551 0
       1 -0.836735 0
       1 -0.795918 0
       1 -0.755102 0
       1 -0.714286 0
       1 -0.673469 0
       1 -0.632653 0
       1 -0.591837 0
       1 -0.55102 0
       1 -0.510204 0
       1 -0.469388 0
       1 -0.428571 0
       1 -0.387755 0
       1 -0.346939 0
       1 -0.306122 0
       1 -0.265306 0
       1 -0.22449 0
       1 -0.183673 0
       1 -0.142857 0
       1 -0.102041 0
       1 -0.0612245 0
       1 -0.0204082 0
       1 0.0204082 0
       1 0.0612245 0
       1 0.102041 0
       1 0.142857 0
       1 0.183673 0
       1 0.22449 0
       1 0.265306 0
       1 0.306122 0
       1 0.346939 0
       1 0.387755 0
       1 0.428571 0
       1 0.469388 0
       1 0.510204 0
       1 0.55102 0
       1 0.591837 0
       1 0.632653 0
       1 0.673469 0
       1 0.714286 0
       1 0.755102 0
       1 0.795918 0
       1 0.836735 0
       1 0.877551 0
       1 0.918367 0
       1 0.959184 0
       0.959184 1 0
       0.918367 1 0
       0.877551 1 0
       0.836735 1 0
       0.795918 1 0
       0.755102 1 0
       0.714286 1 0
       0.673469 1 0
       0.632653 1 0
       0.591837 1 0
       0.55102 1 0
       0.510204 1 0
       0.469388 1 0
       0.428571 1 0
       0.387755 1 0
       0.346939 1 0
       0.306122 1 0
       0.265306 1 0
       0.22449 1 0
       0.183673 1 0
       0.142857 1 0
       0.102041 1 0
       0.0612245 1 0
       0.0204082 1 0
       -0.0204082 1 0
       -0.0612245 1 0
       -0.102041 1 0
       -0.142857 1 0
       -0.183673 1 0
       -0.22449 1 0
       -0.265306 1 0
       -0.306122 1 0
       -0.346939 1 0
       -0.387755 1 0
       -0.428571 1 0
       -0.469388 1 0
       -0.510204 1 0
       -0.55102 1 0
       -0.591837 1 0
       -0.632653 1 0
       -0.673469 1 0
       -0.714286 1 0
       -0.755102 1 0
       -0.795918 1 0
       -0.836735 1 0
       -0.877551 1 0
       -0.918367 1 0
       -0.959184 1 0
       -1 0.959184 0
       -1 0.918367 0
       -1 0.877551 0
       -1 0.836735 0
       -1 0.795918 0
       -1 0.755102 0
       -1 0.714286 0
       -1 0.673469 0
       -1 0.632653 0
       -1 0.591837 0
       -1 0.55102 0
       -1 0.510204 0
       -1 0.469388 0
       -1 0.428571 0
       -1 0.387755 0
       -1 0.346939 0
       -1 0.306122 0
       -1 0.265306 0
       -1 0.22449 0
       -1 0.183673 0
       -1 0.142857 0
       -1 0.102041 0
       -1 0.0612245 0
       -1 0.0204082 0
       -1 -0.0204082 0
       -1 -0.0612245 0
       -1 -0.102041 0
       -1 -0.142857 0
       -1 -0.183673 0
       -1 -0.22449 0
       -1 -0.265306 0
       -1 -0.306122 0
       -1 -0.346939 0
       -1 -0.387755 0
       -1 -0.428571 0
       -1 -0.469388 0
       -1 -0.510204 0
       -1 -0.55102 0
       -1 -0.591837 0
       -1 -0.632653 0
       -1 -0.673469 0
       -1 -0.714286 0
       -1 -0.755102 0
       -1 -0.795918 0
       -1 -0.836735 0
       -1 -0.877551 0
       -1 -0.918367 0
       -1 -0.959184 0
       -0.959184 0.959184 0
       -0.918367 0.959184 0
       -0.877551 0.959184 0
       -0.836735 0.959184 0
       -0.795918 0.959184 0
       -0.755102 0.959184 0
       -0.714286 0.959184 0
       -0.673469 0.959184 0
       -0.632653 0.959184 0
       -0.591837 0.959184 0
       -0.55102 0.959184 0
       -0.510204 0.959184 0
       -0.469388 0.959184 0
       -0.428571 0.959184 0
       -0.387755 0.959184 0
       -0.346939 0.959184 0
       -0.306122 0.959184 0
       -0.265306 0.959184 0
       -0.22449 0.959184 0
       -0.183673 0.959184 0
       -0.142857 0.959184 0
       -0.102041 0.959184 0
       -0.0612245 0.959184 0
       -0.0204082 0.959184 0
       0.0204082 0.959184 0
       0.0612245 0.959184 0
       0.102041 0.959184 0
       0.142857 0.959184 0
       0.183673 0.959184 0
       0.22449 0.959184 0
       0.265306 0.959184 0
       0.306122 0.959184 0
       0.346939 0.959184 0
       0.387755 0.959184 0
       0.428571 0.959184 0
       0.469388 0.959184 0
       0.510204 0.959184 0
       0.55102 0.959184 0
       0.591837 0.959184 0
       0.632653 0.959184 0
       0.673469 0.959184 0
       0.714286 0.959184 0
       0.755102 0.959184 0
       0.795918 0.959184 0
       0.836735 0.959184 0
       0.877551 0.959184 0
       0.918367 0.959184 0
       0.959184 0.959184 0
       -0.959184 0.918367 0
       -0.918367 0.918367 0
       -0.877551 0.918367 0
       -0.836735 0.918367 0
       -0.795918 0.918367 0
       -0.755102 0.918367 0
       -0.714286 0.918367 0
       -0.673469 0.918367 0
       -0.632653 0.918367 0
       -0.591837 0.918367 0
       -0.55102 0.918367 0
       -0.510204 0.918367 0
       -0.469388 0.918367 0
       -0.428571 0.918367 0
       -0.387755 0.918367 0
       -0.346939 0.918367 0
       -0.306122 0.918367 0
       -0.265306 0.918367 0
       -0.22449 0.918367 0
       -0.183673 0.918367 0
       -0.142857 0.918367 0
       -0.102041 0.918367 0
       -0.0612245 0.918367 0
       -0.0204082 0.918367 0
       0.0204082 0.918367 0
       0.0612245 0.918367 0
       0.102041 0.918367 0
       0.142857 0.918367 0
       0.183673 0.918367 0
       0.22449 0.918367 0
       0.265306 0.918367 0
       0.306122 0.918367 0
       0.346939 0.918367 0
       0.387755 0.918367 0
       0.428571 0.918367 0
       0.469388 0.918367 0
       0.510204 0.918367 0
       0.55102 0.918367 0
       0.591837 0.918367 0
       0.632653 0.918367 0
       0.673469 0.918367 0
       0.714286 0.918367 0
       0.755102 0.918367 0
       0.795918 0.918367 0
       0.836735 0.918367 0
       0.877551 0.918367 0
       0.918367 0.918367 0
       0.959184 0.918367 0
       -0.959184 0.877551 0
       -0.918367 0.877551 0
       -0.877551 0.877551 0
       -0.836735 0.877551 0
       -0.795918 0.877551 0
       -0.755102 0.877551 0
       -0.714286 0.877551 0
       -0.673469 0.877551 0
       -0.632653 0.877551 0
       -0.591837 0.877551 0
       -0.55102 0.877551 0
       -0.510204 0.877551 0
       -0.469388 0.877551 0
       -0.428571 0.877551 0
       -0.387755 0.877551 0
       -0.346939 0.877551 0
       -0.306122 0.877551 0
       -0.265306 0.877551 0
       -0.22449 0.877551 0
       -0.183673 0.877551 0
       -0.142857 0.877551 0
       -0.102041 0.877551 0
       -0.0612245 0.877551 0
       -0.0204082 0.877551 0
       0.0204082 0.877551 0
       0.0612245 0.877551 0
       0.102041 0.877551 0
       0.142857 0.877551 0
       0.183673 0.877551 0
       0.22449 0.877551 0
       0.265306 0.877551 0
       0.306122 0.877551 0
       0.346939 0.877551 0
       0.387755 0.877551 0
       0.428571 0.877551 0
       0.469388 0.877551 0
       0.510204 0.877551 0
       0.55102 0.877551 0
       0.591837 0.877551 0
       0.632653 0.877551 0
       0.673469 0.877551 0
       0.714286 0.877551 0
       0.755102 0.877551 0
       0.795918 0.877551 0
       0.836735 0.877551 0
       0.877551 0.877551 0
       0.918367 0.877551 0
       0.959184 0.877551 0
       -0.959184 0.836735 0
       -0.918367 0.836735 0
       -0.877551 0.836735 0
       -0.836735 0.836735 0
       -0.795918 0.836735 0
       -0.755102 0.836735 0
       -0.714286 0.836735 0
       -0.673469 0.836735 0
       -0.632653 0.836735 0
       -0.591837 0.836735 0
       -0.55102 0.836735 0
       -0.510204 0.836735 0
       -0.469388 0.836735 0
       -0.428571 0.836735 0
       -0.387755 0.836735 0
       -0.346939 0.836735 0
       -0.306122 0.836735 0
       -0.265306 0.836735 0
       -0.22449 0.836735 0
       -0.183673 0.836735 0
       -0.142857 0.836735 0
       -0.102041 0.836735 0
       -0.0612245 0.836735 0
       -0.0204082 0.836735 0
       0.0204082 0.836735 0
       0.0612245 0.836735 0
       0.102041 0.836735 0
       0.142857 0.836735 0
       0.183673 0.836735 0
       0.22449 0.836735 0
       0.265306 0.836735 0
       0.306122 0.836735 0
       0.346939 0.836735 0
       0.387755 0.836735 0
       0.428571 0.836735 0
       0.469388 0.836735 0
       0.510204 0.836735 0
       0.55102 0.836735 0
       0.591837 0.836735 0
       0.632653 0.836735 0
       0.673469 0.836735 0
       0.714286 0.836735 0
       0.755102 0.836735 0
       0.795918 0.836735 0
       0.836735 0.836735 0
       0.877551 0.836735 0
       0.918367 0.836735 0
       0.959184 0.836735 0
       -0.959184 0.795918 0
       -0.918367 0.795918 0
       -0.877551 0.795918 0
       -0.836735 0.795918 0
       -0.795918 0.795918 0
       -0.755102 0.795918 0
       -0.714286 0.795918 0
       -0.673469 0.795918 0
       -0.632653 0.795918 0
       -0.591837 0.795918 0
       -0.55102 0.795918 0
       -0.510204 0.795918 0
       -0.469388 0.795918 0
       -0.428571 0.795918 0
[...]
      <PointData Scalars="scalars">
        <DataArray type="Float32" Name="field" Format="ascii">
       2
       2
       0
       0
       1.92003
       1.8434
       1.7701
       1.70012
       1.63349
       1.57018
       1.5102
       1.45356
       1.40025
       1.35027
       1.30362
       1.26031
       1.22032
       1.18367
       1.15035
       1.12037
       1.09371
       1.07039
       1.0504
       1.03374
       1.02041
       1.01041
       1.00375
       1.00042
       1.00042
       1.00375
       1.01041
       1.02041
       1.03374
       1.0504
       1.07039
       1.09371
       1.12037
       1.15035
       1.18367
       1.22032
       1.26031
       1.30362
       1.35027
       1.40025
       1.45356
       1.5102
       1.57018
       1.63349
       1.70012
       1.7701
       1.8434
       1.92003
       1.92003
       1.8434
       1.7701
       1.70012
       1.63349
       1.57018
       1.5102
       1.45356
       1.40025
       1.35027
       1.30362
       1.26031
       1.22032
       1.18367
       1.15035
       1.12037
       1.09371
       1.07039
       1.0504
       1.03374
       1.02041
       1.01041
       1.00375
       1.00042
       1.00042
       1.00375
       1.01041
       1.02041
       1.03374
       1.0504
       1.07039
       1.09371
       1.12037
       1.15035
       1.18367
       1.22032
       1.26031
       1.30362
       1.35027
       1.40025
       1.45356
       1.5102
       1.57018
       1.63349
       1.70012
       1.7701
       1.8434
       1.92003
       0
       0
       0
       0
       0
       0
       0
       0
       0
       0
       0
       0
       0
       0
       0
       0
       0
       0
       0
       0
       0
       0
       0
       0
       0
       0
       0
       0
       0
       0
       0
       0
       0
       0
       0
       0
       0
       0
       0
       0
       0
       0
       0
       0
       0
       0
       0
       0
       0
       0
       0
       0
       0
       0
       0
       0
       0
       0
       0
       0
       0
       0
       0
       0
       0
       0
       0
       0
       0
       0
       0
       0
       0
       0
       0
       0
       0
       0
       0
       0
       0
       0
       0
       0
       0
       0
       0
       0
       0
       0
       0
       0
       0
       0
       0
       0
       -0.0152192
       -0.0301706
       -0.0445908
       -0.0582251
       -0.0708315
       -0.0821849
       -0.0920804
       -0.100337
       -0.1068
       -0.111345
       -0.113876
       -0.114334
       -0.112689
       -0.108948
       -0.103151
       -0.0953695
       -0.0857087
       -0.0743026
       -0.0613125
       -0.0469245
       -0.0313456
       -0.0148005
       0.00247309
       0.0202283
       0.0382142
       0.0561803
       0.0738819
       0.0910855
       0.107574
       0.123151
       0.13765
       0.150937
       0.16292
       0.173556
       0.182859
       0.190919
       0.197913
       0.204135
       0.210039
       0.216307
       0.223966
       0.234615
       0.250865
       0.277276
       0.322568
       0.405367
       0.570834
       0.944198
       -0.0301706
       -0.0598101
       -0.088396
       -0.115423
       -0.140411
       -0.162914
       -0.182525
       -0.198886
       -0.211689
       -0.220687
       -0.225693
       -0.226584
       -0.223306
       -0.21587
       -0.204355
       -0.188905
       -0.169728
       -0.147089
       -0.121308
       -0.0927551
       -0.0618405
       -0.0290097
       0.00526509
       0.0404943
       0.0761797
       0.111824
       0.146942
       0.181069
       0.213774
       0.244666
       0.273412
       0.299744
       0.323475
       0.344513
       0.362879
       0.378735
       0.392411
       0.404454
       0.415701
       0.427392
       0.441359
       0.460357
       0.488656
       0.533164
       0.605574
       0.726496
       0.932709
       1.28497
       -0.0445908
       -0.088396
       -0.130643
       -0.170583
       -0.207508
       -0.240756
       -0.269726
       -0.293888
       -0.312788
       -0.326058
       -0.333423
       -0.334701
       -0.329812
       -0.318772
       -0.301698
       -0.278804
       -0.250396
       -0.216867
       -0.178691
       -0.136415
       -0.090647
       -0.0420454
       0.00869068
       0.0608364
       0.113654
       0.166407
       0.218376
       0.268872
       0.317253
       0.362942
       0.405437
       0.444338
       0.479357
       0.510345
       0.537312
       0.560464
       0.580239
       0.597368
       0.612954
       0.628604
       0.646618
       0.670301
       0.70446
       0.756183
       0.83599
       0.959217
       1.14643
       1.4181
       -0.0582251
       -0.115423
       -0.170583
       -0.222728
       -0.27093
       -0.314325
       -0.352127
       -0.383642
       -0.408278
       -0.425553
       -0.435106
       -0.436703
       -0.430235
       -0.415726
       -0.393328
       -0.36332
       -0.326104
       -0.282193
       -0.232208
       -0.176864
       -0.116954
       -0.053343
       0.013056
       0.081294
       0.150405
       0.219425
       0.28741
       0.353456
       0.416722
       0.476443
       0.53196
       0.582735
       0.628375
       0.668663
       0.703578
       0.733335
       0.75843
       0.779691
       0.798363
       0.816215
       0.835698
       0.86016
       0.89415
       0.943767
       1.01696
       1.12334
       1.27256
       1.46893
       -0.0708315
       -0.140411
       -0.207508
       -0.27093
       -0.329548
       -0.382307
       -0.428251
       -0.466533
       -0.496432
       -0.517362
       -0.528882
       -0.530706
       -0.522702
       -0.5049
       -0.477485
       -0.440797
       -0.395325
       -0.341697
       -0.280668
       -0.213109
       -0.139991
       -0.0623643
       0.0186546
       0.101908
       0.186218
       0.270405
       0.353318
       0.433849
       0.510967
       0.583732
       0.651328
       0.713084
       0.768498
       0.817272
       0.859332
       0.894873
       0.924391
       0.948738
       0.969185
       0.987501
       1.00605
       1.02793
       1.05703
       1.09817
       1.15684
       1.23862
       1.34745
       1.48248
       -0.0821849
       -0.162914
       -0.240756
       -0.314325
       -0.382307
       -0.443477
       -0.496722
       -0.541057
       -0.575644
       -0.599801
       -0.613017
       -0.614958
       -0.605471
       -0.58459
       -0.552532
       -0.509692
       -0.456638
       -0.394101
       -0.32296
       -0.244228
       -0.159035
       -0.0686057
       0.0257628
       0.122722
       0.220897
       0.318917
       0.415434
       0.509158
       0.598878
       0.683492
       0.762036
       0.833707
       0.897896
       0.95421
       1.00251
       1.04294
       1.07594
       1.10235
       1.12336
       1.14064
       1.15634
       1.17315
       1.19426
       1.22331
       1.264
       1.31948
       1.39117
       1.47712
       -0.0920803
       -0.182525
       -0.269726
       -0.352127
       -0.428251
       -0.496722
       -0.556289
       -0.605847
       -0.644452
       -0.671341
       -0.685937
       -0.687865
       -0.676956
       -0.653246
       -0.616979
       -0.568599
       -0.508747
       -0.438242
       -0.358073
       -0.26938
       -0.173432
       -0.0716065
       0.0346359
       0.143778
       0.254273
       0.364575
       0.473165
       0.578585
       0.679465
       0.774555
       0.862751
       0.943128
       1.01497
       1.07778
       1.13135
       1.17574
       1.21133
       1.23886
       1.25942
       1.27452
       1.28604
       1.29624
       1.30772
       1.32318
       1.34518
       1.37559
       1.41487
       1.46131
       -0.100337
       -0.198886
       -0.293888
       -0.383642
       -0.466533
       -0.541057
       -0.605847
       -0.659693
       -0.701565
       -0.730625
       -0.746247
       -0.748018
       -0.735755
       -0.709496
       -0.669508
       -0.61628
       -0.550508
       -0.473092
       -0.385113
       -0.287818
       -0.182596
       -0.0709561
       0.045504
       0.165122
       0.286202
       0.407049
       0.525997
       0.641442
       0.751874
       0.855912
       0.952329
       1.04009
       1.11836
       1.18657
       1.24441
       1.29185
       1.32919
       1.35706
       1.37641
       1.38857
       1.39514
       1.39805
       1.39937
       1.4012
       1.4054
       1.41322
       1.42491
       1.43935
       -0.1068
       -0.211689
       -0.312788
       -0.408277
       -0.496432
       -0.575644
       -0.644452
       -0.701564
       -0.745878
       -0.776501
       -0.792759
       -0.794216
       -0.780672
       -0.75217
       -0.708997
       -0.651672
       -0.580944
       -0.497772
       -0.403314
       -0.298904
       -0.186028
       -0.0663004
       0.0585679
       0.186797
       0.31657
       0.44607
       0.573508
       0.69716
       0.815401
       0.926737
       1.02984
       1.12356
       1.20699
       1.27945
       1.34055
       1.39018
       1.42853
       1.45612
       1.47376
       1.48258
       1.48397
       1.47955
       1.47103
       1.4601
       1.44825
       1.43647
       1.42511
       1.41362
       -0.111345
       -0.220687
       -0.326058
       -0.425552
       -0.517361
       -0.599801
       -0.67134
       -0.730625
       -0.776501
       -0.80803
       -0.824511
       -0.825483
       -0.810737
       -0.780321
       -0.734533
       -0.673918
       -0.599261
       -0.511569
       -0.412055
       -0.302119
       -0.183319
       -0.0573485
       0.073996
       0.208846
       0.345294
       0.481428
       0.615367
       0.745295
       0.869495
       0.986385
       1.09455
       1.19276
       1.28003
       1.35559
       1.41898
       1.46999
       1.50871
       1.53556
       1.55121
       1.55663
       1.55301
       1.54174
       1.52426
       1.50203
       1.47631
       1.44808
       1.41782
       1.38553
       -0.113876
       -0.225693
       -0.333422
       -0.435106
       -0.528882
       -0.613017
       -0.685936
       -0.746246
       -0.792759
       -0.824511
       -0.840777
       -0.841086
       -0.825223
       -0.793235
       -0.74543
       -0.682371
       -0.604863
       -0.513946
       -0.410867
       -0.297069
       -0.174158
       -0.0438774
       0.0919204
       0.231309
       0.37232
       0.51298
       0.651344
       0.785535
       0.913772
       1.03441
       1.14597
       1.24716
       1.33693
       1.41445
       1.47917
       1.53082
       1.5694
       1.5952
       1.6088
       1.61101
       1.60287
       1.58557
       1.5604
       1.52865
       1.4915
       1.44992
       1.40462
       1.35596
       -0.114334
       -0.226584
       -0.334701
       -0.436702
       -0.530705
       -0.614957
       -0.687865
       -0.748018
       -0.794215
       -0.825482
       -0.841086
       -0.840548
       -0.823652
       -0.790446
       -0.741241
       -0.676607
       -0.597359
       -0.504549
       -0.399442
       -0.283496
       -0.158338
       -0.0257361
       0.112434
       0.25422
       0.397625
       0.540646
       0.681308
       0.817701
       0.948011
       1.07056
       1.18382
       1.28647
       1.37741
       1.45577
       1.52092
       1.57254
       1.61054
       1.63513
       1.64678
       1.64618
       1.63423
       1.612
       1.58064
       1.54134
       1.49524
       1.44336
       1.38656
       1.32552
       -0.112689
       -0.223306
       -0.329811
       -0.430234
       -0.522702
       -0.605471
       -0.676955
       -0.735754
       -0.780671
       -0.810737
       -0.825222
       -0.823652
       -0.805809
       -0.771743
       -0.721763
       -0.656435
       -0.576572
       -0.483219
       -0.377637
       -0.261277
       -0.135761
       -0.00284849
       0.135591
       0.277609
       0.421217
       0.564414
       0.705228
       0.841748
       0.972157
       1.09477
       1.20805
       1.31066
       1.40146
       1.47956
       1.5443
       1.59528
       1.63237
       1.6557
       1.66563
       1.66276
       1.64789
       1.62196
       1.58605
       1.54125
       1.4887
       1.42944
       1.36446
       1.29463
       -0.108948
       -0.21587
       -0.318771
       -0.415725
       -0.504899
       -0.58459
       -0.653245
       -0.709495
       -0.75217
       -0.78032
       -0.793234
       -0.790445
       -0.771743
       -0.737173
       -0.687039
       -0.621895
       -0.542537
       -0.449986
       -0.345477
       -0.230432
       -0.106436
       0.0247847
       0.161399
       0.301498
       0.44313
       0.584333
       0.72317
       0.857761
       0.986317
       1.10717
       1.21882
       1.31991
       1.40931
       1.48612
       1.54965
       1.59947
       1.63539
       1.65748
       1.66603
       1.66154
       1.64472
       1.61643
       1.57765
       1.52943
       1.47285
       1.40901
       1.33894
       1.26364
       -0.103151
       -0.204355
       -0.301698
       -0.393327
       -0.477484
       -0.552531
       -0.616978
       -0.669507
       -0.708996
       -0.734532
       -0.745429
       -0.74124
       -0.721762
       -0.687039
       -0.637362
       -0.573263
       -0.495506
       -0.405076
       -0.303157
       -0.191118
       -0.0704836
       0.0570855
       0.189826
       0.3259
       0.463427
       0.600516
       0.735297
       0.865955
       0.99076
       1.1081
       1.2165
       1.31466
       1.40146
       1.476
       1.53759
       1.58577
       1.62034
       1.64129
       1.64884
       1.64345
       1.62572
       1.59643
       1.55648
       1.50686
       1.44862
       1.38281
       1.31053
       1.23284
       -0.0953693
       -0.188905
       -0.278803
       -0.36332
       -0.440796
       -0.509691
       -0.568598
       -0.616278
       -0.651671
       -0.673916
       -0.682369
       -0.676605
       -0.656433
       -0.621894
       -0.573262
       -0.511038
       -0.435942
       -0.348902
       -0.251035
       -0.143631
       -0.0281308
       0.0938995
       0.220795
       0.350819
       0.482194
       0.613131
       0.741861
       0.866666
       0.985903
       1.09804
       1.20167
       1.29555
       1.37861
       1.44997
       1.50896
       1.55511
       1.58818
       1.60814
       1.61515
       1.60959
       1.592
       1.56307
       1.52361
       1.47454
       1.41685
       1.35157
       1.27975
       1.20247
       -0.0857085
       -0.169728
       -0.250395
       -0.326103
       -0.395324
       -0.456637
       -0.508746
       -0.550506
       -0.580942
       -0.599259
       -0.604861
       -0.597357
       -0.576569
       -0.542535
       -0.495506
       -0.435942
       -0.364508
       -0.282059
       -0.189626
       -0.0884001
       0.02029
       0.134998
       0.254185
       0.376247
       0.499537
       0.622402
       0.743202
       0.860345
       0.972307
       1.07766
       1.1751
       1.26346
       1.34173
       1.40908
       1.46486
       1.50863
       1.54011
       1.55926
       1.5662
       1.56122
       1.54479
       1.51752
       1.48014
       1.43347
       1.37843
       1.31596
       1.24707
       1.17278
       -0.0743024
       -0.147088
       -0.216866
       -0.282192
       -0.341696
       -0.394099
       -0.43824
       -0.47309
       -0.49777
       -0.511567
       -0.513943
       -0.504547
       -0.483217
       -0.449984
       -0.405075
       -0.348901
       -0.28206
       -0.205317
       -0.1196
       -0.0259797
       0.0743475
       0.180081
       0.289837
       0.402166
       0.515586
       0.628602
       0.739737
       0.847551
       0.950666
       1.04779
       1.13772
       1.21942
       1.29195
       1.35454
       1.40659
       1.44768
       1.47754
       1.49609
       1.5034
       1.49973
       1.48545
       1.46109
       1.42727
       1.38472
       1.33424
       1.27669
       1.21298
       1.14404
       -0.0613123
       -0.121308
       -0.178691
       -0.232208
       -0.280667
       -0.322958
       -0.358071
       -0.385111
       -0.403312
       -0.412053
       -0.410865
       -0.39944
       -0.377634
       -0.345475
       -0.303156
       -0.251034
       -0.189627
       -0.119601
       -0.0417609
       0.0429596
       0.133518
       0.228782
       0.327548
       0.428549
       0.530484
       0.632049
       0.731954
       0.828939
       0.921792
       1.00938
       1.09065
       1.16466
       1.2306
       1.28778
       1.33566
       1.37383
       1.40205
       1.42021
       1.42836
       1.42668
       1.41547
       1.39515
       1.36626
       1.32939
       1.28522
       1.2345
       1.17798
       1.11648
       -0.0469242
       -0.0927546
       -0.136415
       -0.176863
       -0.213108
       -0.244227
       -0.269378
       -0.287816
       -0.298902
       -0.302117
       -0.297067
       -0.283493
       -0.261275
       -0.230429
       -0.191116
       -0.14363
       -0.0884023
       -0.0259838
       0.0429594
       0.117643
       0.197193
       0.280666
       0.367082
       0.455363
       0.544391
       0.633097
       0.720403
       0.805245
       0.886605
       0.963521
       1.03511
       1.10057
       1.1592
       1.21041
       1.25373
       1.2888
       1.31539
       1.33339
       1.3428
       1.34374
       1.33643
       1.32121
       1.29846
       1.26866
       1.23236
       1.19012
       1.14257
       1.09036
       -0.0313453
       -0.0618399
       -0.0906464
       -0.116953
       -0.13999
       -0.159034
       -0.173431
       -0.182595
       -0.186026
       -0.183317
       -0.174155
       -0.158335
       -0.135758
       -0.106433
       -0.0704809
       -0.0281299
       0.020286
       0.0743375
       0.133522
       0.197206
       0.264679
       0.335246
       0.40815
       0.482517
       0.557457
       0.632129
       0.705685
       0.777284
       0.846115
       0.911414
       0.972471
       1.02865
       1.07937
       1.12417
       1.16264
       1.19448
       1.21947
       1.23752
       1.24857
       1.2527
       1.25005
       1.24081
       1.22527
       1.20376
       1.17665
       1.14435
       1.1073
       1.06597
       -0.0148003
       -0.0290093
       -0.0420449
       -0.0533423
       -0.0623633
       -0.0686046
       -0.0716052
       -0.0709544
       -0.0662983
       -0.0573459
       -0.0438743
       -0.0257324
       -0.00284424
       0.0247894
       0.0570902
       0.0939026
       0.134994
       0.180048
       0.228765
       0.280648
       0.335204
       0.392011
       0.450458
       0.509946
       0.569856
       0.629557
       0.688446
       0.745924
       0.801405
       0.854336
       0.904198
       0.95052
       0.992881
       1.03092
       1.06432
       1.09284
       1.11631
       1.1346
       1.14765
       1.15547
       1.15809
       1.15561
       1.14818
       1.13596
       1.11915
       1.09799
       1.07271
       1.04357
       0.00247326
       0.00526542
       0.00869115
       0.0130567
       0.0186554
       0.0257638
       0.0346371
       0.0455056
       0.05857
       0.0739986
       0.0919237
       0.112439
       0.135596
       0.161406
       0.189834
       0.220806
       0.254202
       0.28986
       0.327567
       0.367029
       0.408064
       0.450422
       0.493696
       0.537613
       0.581794
       0.62582
       0.669368
       0.712083
       0.753617
       0.793636
       0.831825
       0.867891
       0.901566