<VTKFile type="UnstructuredGrid" version="0.1" byte_order="BigEndian">
  <UnstructuredGrid>
    <Piece NumberOfPoints="514" NumberOfCells="946">
      <Points>
        <DataArray type="Float32" NumberOfComponents="3" Format="ascii">
       -1 -1 0
       1 -1 0
       1 1 0
       -1 1 0
       -0.9 -1 0
       -0.8 -1 0
       -0.7 -1 0
       -0.6 -1 0
       -0.5 -1 0
       -0.4 -1 0
       -0.3 -1 0
       -0.2 -1 0
       -0.1 -1 0
       -2.75224e-12 -1 0
       0.1 -1 0
       0.2 -1 0
       0.3 -1 0
       0.4 -1 0
       0.5 -1 0
       0.6 -1 0
       0.7 -1 0
       0.8 -1 0
       0.9 -1 0
       1 -0.9 0
       1 -0.8 0
       1 -0.7 0
       1 -0.6 0
       1 -0.5 0
       1 -0.4 0
       1 -0.3 0
       1 -0.2 0
       1 -0.1 0
       1 -2.75224e-12 0
       1 0.1 0
       1 0.2 0
       1 0.3 0
       1 0.4 0
       1 0.5 0
       1 0.6 0
       1 0.7 0
       1 0.8 0
       1 0.9 0
       0.9 1 0
       0.8 1 0
       0.7 1 0
       0.6 1 0
       0.5 1 0
       0.4 1 0
       0.3 1 0
       0.2 1 0
       0.1 1 0
       2.75224e-12 1 0
       -0.1 1 0
       -0.2 1 0
       -0.3 1 0
       -0.4 1 0
       -0.5 1 0
       -0.6 1 0
       -0.7 1 0
       -0.8 1 0
       -0.9 1 0
       -1 0.9 0
       -1 0.8 0
       -1 0.7 0
       -1 0.6 0
       -1 0.5 0
       -1 0.4 0
       -1 0.3 0
       -1 0.2 0
       -1 0.1 0
       -1 2.75224e-12 0
       -1 -0.1 0
       -1 -0.2 0
       -1 -0.3 0
       -1 -0.4 0
       -1 -0.5 0
       -1 -0.6 0
       -1 -0.7 0
       -1 -0.8 0
       -1 -0.9 0
       0.05 -0.913397 0
       -0.05 0.913397 0
       0.899067 0.0456234 0
       -0.932015 -0.0469005 0
       -0.35 -0.913397 0
       0.913397 -0.35 0
       0.35 0.913397 0
       -0.912259 0.34897 0
       0.35 -0.913397 0
       0.915489 0.35 0
       -0.35 0.913397 0
       -0.925644 -0.348547 0
       0.916236 0.643931 0
       -0.913397 -0.65 0
       0.65 -0.913397 0
       -0.654004 0.91618 0
       -0.653546 -0.904879 0
       0.911146 -0.65092 0
       0.65 0.913397 0
       -0.911146 0.65092 0
       -0.15 -0.913397 0
       0.920857 -0.15219 0
       0.145601 0.91071 0
       -0.910263 0.154914 0
       -0.91563 -0.846132 0
       0.846132 -0.91563 0
       0.915184 0.850163 0
       -0.846132 0.91563 0
       0.15 -0.913397 0
       0.1 -0.826795 0
       0.2 -0.826795 0
       0.15 -0.740192 0
       0.05 -0.740192 0
       0.1 -0.65359 0
       -2.74117e-12 -0.65359 0
       0.05 -0.566987 0
       -0.05 -0.566987 0
       -2.96973e-12 -0.480385 0
       0.1 -0.480385 0
       0.05 -0.393782 0
       -0.05 -0.393782 0
       -3.24205e-12 -0.30718 0
       -0.1 -0.30718 0
       -0.05 -0.220577 0
       0.05 -0.220577 0
       -3.50509e-12 -0.133975 0
       -0.1 -0.133975 0
       -0.05 -0.0473721 0
       0.05 -0.0473721 0
       -3.76334e-12 0.0392305 0
       0.1 0.0392305 0
       -0.1 0.0392305 0
       0.05 0.125833 0
       0.15 0.125833 0
       0.2 0.0392305 0
       0.25 0.125833 0
       0.1 0.212436 0
       0.3 0.0392305 0
       0.35 0.125833 0
       0.4 0.0392305 0
       0.45 0.125833 0
       0.4 0.212436 0
       0.35 -0.0473721 0
       0.45 -0.0473721 0
       0.4 -0.133975 0
       0.5 -0.133975 0
       0.45 -0.220577 0
       0.5 0.212436 0
       0.45 0.299038 0
       -0.15 -0.393782 0
       -0.2 -0.30718 0
       -0.25 -0.393782 0
       -0.3 -0.30718 0
       -0.35 -0.393782 0
       -0.4 -0.30718 0
       -0.45 -0.393782 0
       -0.5 -0.30718 0
       -0.45 -0.220577 0
       -4.03759e-12 0.212436 0
       0.05 0.299038 0
       -0.05 0.299038 0
       -4.32728e-12 0.385641 0
       -0.1 0.385641 0
       -0.05 0.472243 0
       0.05 0.472243 0
       -0.15 0.472243 0
       -0.2 0.385641 0
       -0.25 0.472243 0
       -0.3 0.385641 0
       -0.35 0.472243 0
       -0.4 0.385641 0
       -0.45 0.472243 0
       -0.5 0.385641 0
       -0.45 0.299038 0
       0.2 -0.65359 0
       -0.3 -0.480385 0
       -0.55 -0.393782 0
       -0.5 -0.480385 0
       -0.55 0.472243 0
       -0.5 0.558846 0
       -0.2 0.558375 0
       -0.55 -0.220577 0
       -0.5 -0.133975 0
       -0.55 0.299038 0
       0.55 -0.220577 0
       0.5 -0.30718 0
       0.55 -0.0473721 0
       0.55 0.299038 0
       0.5 0.385641 0
       0.4 0.385641 0
       0.45 0.472243 0
       0.55 0.472243 0
       0.5 0.558846 0
       0.4 0.558846 0
       -4.59858e-12 0.558846 0
       -0.6 -0.480385 0
       -0.55 -0.566987 0
       0.6 0.212436 0
       0.15 -0.393782 0
       -0.5 0.212436 0
       -0.4 0.212436 0
       0.6 0.558846 0
       -0.596183 0.556642 0
       -0.6 -0.133975 0
       0.6 -0.30718 0
       0.55 -0.393782 0
       -0.6 0.212436 0
       0.45 -0.393782 0
       0.5 -0.480385 0
       0.6 -0.480385 0
       0.55 -0.566987 0
       -0.4 -0.133975 0
       0.1 0.558846 0
       -0.1 -0.65359 0
       0.55 0.645448 0
       -0.549364 0.645081 0
       -0.449894 0.645387 0
       0.05 0.644978 0
       0.15 0.64537 0
       -0.65 -0.220577 0
       0.64856 0.471412 0
       -0.647877 0.471017 0
       0.65 0.645448 0
       -0.636783 0.650154 0
       0.650643 -0.566616 0
       -0.648718 -0.566247 0
       0.65 -0.220577 0
       0.600107 -0.653528 0
       0.500018 -0.65358 0
       0.15 0.299038 0
       0.3 -0.133975 0
       0.4 -0.480385 0
       -0.45 -0.0473721 0
       -0.35 -0.0473721 0
       -0.599786 -0.649818 0
       -0.499964 -0.652961 0
       -0.499876 0.731979 0
       0.7 -0.480385 0
       -0.7 -0.480385 0
       -0.7 -0.133975 0
       -0.65 -0.0473721 0
       0.700768 -0.653146 0
       -0.692368 -0.649486 0
       0.550021 -0.74018 0
       -0.25 0.299038 0
       0.15 0.472243 0
       -0.65 0.299038 0
       -0.7 0.212436 0
       -0.25 -0.220577 0
       -0.1 0.212436 0
       -0.0456005 0.648057 0
       0.700089 -0.307231 0
       0.35 -0.393782 0
       0.65 0.299038 0
       0.7 0.212436 0
       0.65 0.125833 0
       0.3 -0.480385 0
       0.35 -0.566987 0
       -0.55 0.125833 0
       -0.562055 -0.746544 0
       -0.452003 -0.741146 0
       -0.400328 -0.653644 0
       -0.350389 -0.74036 0
       -0.300119 -0.653627 0
       -0.250085 -0.740227 0
       0.450006 -0.740189 0
       -0.399962 0.731558 0
       -0.75 -0.220577 0
       0.1 0.732051 0
       0.203934 0.729767 0
       0.6 0.73158 0
       0.7 0.731502 0
       0.5 0.731972 0
       0.747464 0.124369 0
       0.699577 0.0389865 0
       0.814056 0.207556 0
       0.747652 -0.219221 0
       0.699609 -0.133749 0
       -0.15 -0.566987 0
       0.250656 0.645054 0
       0.300765 0.731134 0
       -0.7 -0.30718 0
       -0.349976 0.645356 0
       -0.308393 0.732799 0
       -0.4 0.0392305 0
       -0.3 0.0392305 0
       -0.25 -0.0473721 0
       0.500005 -0.826792 0
       -0.5 -0.826795 0
       -0.747473 0.298765 0
       0.756167 0.640082 0
       -0.746981 -0.0456292 0
       -0.699497 0.039521 0
       0.79942 0.736648 0
       -0.796091 0.0416431 0
       0.55 0.818653 0
       -0.45 0.818653 0
       0.265274 0.818588 0
       0.748599 0.82667 0
       -0.548098 0.81474 0
       0.45 0.818653 0
       -0.813609 0.208428 0
       0.814235 -0.304293 0
       -0.793336 -0.305566 0
       -0.843227 -0.224831 0
       0.787916 -0.125066 0
       0.793797 0.0402901 0
       0.600004 -0.826792 0
       0.25 -0.913397 0
       0.3 -0.826795 0
       0.25 -0.740192 0
       0.910218 0.153371 0
       0.913397 0.25 0
       -0.15 0.913397 0
       -0.103934 0.829066 0
       -0.192393 0.825776 0
       -0.15 0.740192 0
       2.5276e-12 0.826795 0
       -0.244798 0.915499 0
       -0.05 -0.913397 0
       -0.1 -0.826795 0
       0.919056 -0.0573718 0
       0.0494763 0.913413 0
       -0.90072 0.0471129 0
       -0.350075 -0.567003 0
       0.749355 -0.91377 0
       0.799248 -0.827229 0
       0.907884 -0.837121 0
       0.85 -0.740192 0
       0.750003 -0.740191 0
       0.803289 -0.652407 0
       0.85346 -0.557747 0
       0.75386 -0.564759 0
       0.802426 -0.475268 0
       0.750917 -0.393013 0
       0.901114 0.744342 0
       -0.75 0.913397 0
       -0.799355 0.827167 0
       -0.907899 0.837112 0
       -0.85 0.740192 0
       -0.75 0.740192 0
       -0.807033 0.654713 0
       -0.853955 0.558011 0
       -0.765704 0.560563 0
       -0.807872 0.480222 0
       -0.91377 -0.749355 0
       -0.827229 -0.799248 0
       -0.837121 -0.907884 0
       -0.743613 -0.849171 0
       -0.738114 -0.738029 0
       -0.654403 -0.799365 0
       0.913746 0.45 0
       0.812391 0.393133 0
       0.830556 0.500694 0
       -0.917511 -0.449758 0
       -0.914083 -0.54996 0
       -0.832764 -0.602084 0
       -0.8137 -0.491217 0
       -0.83308 -0.69812 0
       0.400127 0.731415 0
       0.914252 0.549087 0
       0.59993 0.0391898 0
       0.450021 0.645329 0
       -0.70223 0.828135 0
       0.699768 -0.826929 0
       -2.60467e-12 -0.826795 0
       0.35 0.299038 0
       0.3 0.385641 0
       0.35 0.472243 0
       -0.35 0.299038 0
       -0.3 0.212436 0
       -0.2 0.212436 0
       0.549988 0.125826 0
       0.25 -0.0473721 0
       0.2 -0.133975 0
       0.25 -0.220577 0
       0.15 -0.220577 0
       -0.3 -0.133975 0
       -0.599646 0.385436 0
       0.15 -0.0473721 0
       0.499986 0.0392226 0
       0.3 0.212436 0
       -0.55 -0.0473721 0
       0.1 0.385641 0
       0.599935 -0.133937 0
       -0.1 -0.480385 0
       -0.15 -0.220577 0
       -0.45 -0.566987 0
       0.75 0.299038 0
       -0.25 -0.913397 0
       0.906112 -0.461447 0
       0.914052 -0.253146 0
       -0.900617 0.460035 0
       -0.913397 0.25 0
       0.35 -0.220577 0
       -0.35 -0.220577 0
       0.15 -0.566987 0
       -0.694711 0.382784 0
       -0.05 0.125833 0
       0.450003 -0.566986 0
       -0.2 -0.480385 0
       0.4 -0.30718 0
       0.200109 0.558767 0
       -0.0992668 0.558732 0
       -0.2 -0.133975 0
       0.400005 -0.653587 0
       -0.15 -0.0473721 0
       0.650168 -0.393663 0
       0.3 -0.30718 0
       0.25 0.299038 0
       0.2 0.212436 0
       -0.2 0.0392305 0
       -0.200034 -0.653602 0
       -0.15 0.299038 0
       0.1 -0.133975 0
       0.1 -0.30718 0
       0.2 -0.30718 0
       0.25 -0.393782 0
       -0.797814 -0.134919 0
       -0.400012 -0.480387 0
       0.743798 -0.0439709 0
       -0.6 -0.30718 0
       0.648808 -0.0468087 0
       -0.250038 -0.566998 0
       0.59976 0.385502 0
       -0.45 0.125833 0
       0.2 -0.480385 0
       -0.399978 0.55882 0
       -0.05 -0.740192 0
       0.694773 0.555364 0
       0.650112 -0.740128 0
       -0.588696 0.739447 0
       0.2 0.385641 0
       0.250018 0.47223 0
       0.7 0.385641 0
       0.25 -0.566987 0
       -0.15 0.125833 0
       -0.299992 0.558748 0
       -0.65 -0.393782 0
       0.300131 0.558765 0
       -0.255398 0.642681 0
       0.350283 0.64509 0
       -0.749378 -0.396355 0
       -0.5 0.0392305 0
       -0.25 0.125833 0
       -0.599916 0.0392789 0
       -0.649902 0.12589 0
       -0.75 0.125833 0
       -0.200014 -0.826801 0
       -0.35 0.125833 0
       0.300001 -0.653589 0
       -0.150022 -0.740201 0
       -0.300081 -0.82683 0
       -0.400412 -0.826988 0
       -0.547431 -0.913802 0
       -0.449641 -0.913497 0
       0.350002 -0.740191 0
       0.450001 -0.913397 0
       0.55 -0.913397 0
       0.400002 -0.826794 0
       -0.911243 -0.145529 0
       0.0983694 0.831695 0
       0.0016033 0.727123 0
       0.2422 0.910315 0
       -0.549112 0.912238 0
       -0.149699 0.660005 0
       -0.449954 0.919509 0
       -0.352533 0.812746 0
       0.353233 0.802638 0
       0.45 0.91622 0
       0.55 0.919717 0
       0.649927 0.812845 0
       0.748746 0.931265 0
       -0.799983 0.386604 0
       0.841013 0.909297 0
       0.838414 0.591981 0
       -0.743459 -0.573236 0
       0.74263 0.473428 0
       -0.845059 -0.380454 0
       0.840575 0.299961 0
       -0.837344 0.298553 0
       0.838406 -0.397036 0
       0.841066 0.813424 0
       0.841206 -0.192444 0
       -0.930448 -0.25 0
       0.83292 0.114242 0
       -0.834137 0.115586 0
       -0.93322 0.748866 0
       -0.75 -0.933013 0
       0.933219 -0.748867 0
       0.831888 -0.0369151 0
       -0.831888 -0.0369151 0
       -0.934744 0.55 0
       0.934143 -0.554023 0
       -0.581042 -0.83774 0
       -0.649345 -0.716648 0
       -0.728928 0.462463 0
       -0.678701 0.549727 0
       -0.926795 -0.926795 0
       0.926795 -0.926795 0
       0.926795 0.926795 0
       -0.926795 0.926795 0
       -0.277567 0.829866 0
       -0.0743188 0.742906 0
       0.173603 0.805026 0
       -0.222752 0.732732 0
       -0.720227 0.65611 0
       -0.672139 0.748139 0
       -0.624026 0.840666 0
       0.840726 0.66895 0
       -0.769457 -0.651565 0
       0.772508 0.55231 0
       -0.869132 -0.296689 0
       0.861332 -0.106896 0
        </DataArray>
      </Points>
      <PointData Scalars="scalars">
        <DataArray type="Float32" Name="field" NumberOfComponents="2" Format="ascii">
       -1.96548 1.72297 
       -1.72216 -1.9656 
       1.96548 -1.72298 
       0.1 -1.97113 
       1.96613 0.103699 
       -0.1 1.97113 
       -1.97697 -0.107076 
       1.97113 0.5 
       -0.1 -1.97113 
       1.97219 -0.0933086 
       -1.96679 0.102883 
       0.100706 1.97113 
       0.7 -1.97113 
       1.97183 0.7 
       -0.7 1.97113 
       -1.97518 -0.701525 
       0.3 -1.97113 
       1.70831 -1.97144 
       1.97173 1.6997 
       -1.70826 1.97144 
       -1.97144 -1.70831 
       0.5 -1.97113 
       -1.97136 -1.10007 
       1.1 -1.97113 
       1.3 -1.97113 
       1.97164 1.30406 
       -1.29544 1.97178 
       -1.97113 -1.3 
       -0.506551 1.97132 
       1.97125 0.9 
       1.9714 1.10122 
       1.50097 -1.97125 
       1.9667 1.50406 
       -1.5 1.97113 
       -1.97125 -1.50091 
       -1.9725 -0.900402 
       1.96988 0.29593 
       -0.3 1.97113 
       -0.7 -1.97113 
       1.97113 -0.7 
       0.7 1.97113 
       -1.97074 0.701129 
       -0.5 -1.97113 
       1.97112 -0.494854 
       -1.97113 0.5 
       -0.3 -1.97113 
       1.97354 -0.297929 
       0.304989 1.96992 
       -1.96967 0.294032 
       1.96638 -0.884738 
       -1.96479 0.882684 
       -1.29553 -1.96808 
       1.97036 -1.29833 
       1.3 1.97113 
       -1.97036 1.29834 
       0.899999 -1.97113 
       -1.10255 -1.97117 
       -0.900524 -1.97116 
       -1.96993 -0.308179 
       1.71666 1.96782 
       0.511829 1.96885 
       -1.10107 1.97073 
       -0.9001 1.97317 
       0.9 1.97207 
       1.1 1.97324 
       1.50324 1.97702 
       -1.96349 -1.93047 
       1.93047 -1.96349 
       1.96423 1.92813 
       -1.93048 1.96348 
       -1.93047 -1.96349 
       1.96349 -1.93047 
       1.92813 1.96423 
       -1.96348 1.93048 
       -1.97682 -0.5 
       -1.97769 1.50246 
       -1.5 -1.97767 
       1.97769 -1.50246 
       -1.97825 1.1 
       1.97745 -1.09153 
       0.1 -1.79793 
       -0.0998369 1.81145 
       1.77473 0.0925766 
       -1.8084 -0.1181 
       -0.700516 -1.79735 
       1.79426 -0.687374 
       0.708459 1.81519 
       -1.79851 0.708335 
       0.700002 -1.79793 
       1.79787 0.707642 
       -0.718868 1.81186 
       -1.82222 -0.706389 
       1.81015 1.2709 
       -1.81233 -1.2813 
       1.30142 -1.79764 
       -1.31627 1.8238 
       -1.32578 -1.79479 
       1.7914 -1.30514 
       1.29925 1.79734 
       -1.80241 1.30975 
       -0.300027 -1.7979 
       1.8121 -0.321052 
       0.295945 1.7819 
       -1.79642 0.324566 
       -1.78569 -1.68426 
       1.68498 -1.78858 
       1.79367 1.71014 
       -1.68674 1.78897 
       0.3 -1.79793 
       0.2 -1.65359 
       0.4 -1.65359 
       0.3 -1.48038 
       0.0999972 -1.48038 
       0.2 -1.30718 
       6.02359e-07 -1.30718 
       0.1 -1.13397 
       -0.0999945 -1.13397 
       -5.93568e-12 -0.96077 
       0.2 -0.96077 
       0.1 -0.787564 
       -0.1 -0.787564 
       -6.47636e-12 -0.614359 
       -0.2 -0.614359 
       -0.1 -0.441154 
       0.1 -0.441154 
       -7.00441e-12 -0.267949 
       -0.2 -0.267949 
       -0.1 -0.0947441 
       0.1 -0.0947441 
       -7.52137e-12 0.078461 
       0.2 0.078461 
       -0.2 0.078461 
       0.1 0.251666 
       0.3 0.251666 
       0.4 0.078461 
       0.5 0.251666 
       0.2 0.424871 
       0.600001 0.078461 
       0.699999 0.251665 
       0.800008 0.0784604 
       0.899988 0.251654 
       0.799997 0.424872 
       0.7 -0.0947429 
       0.900188 -0.0947413 
       0.800007 -0.26795 
       0.99986 -0.26778 
       0.899988 -0.441148 
       1.00001 0.424904 
       0.900028 0.598092 
       -0.299997 -0.78756 
       -0.4 -0.614359 
       -0.500001 -0.787559 
       -0.6 -0.614359 
       -0.700012 -0.787578 
       -0.800002 -0.614361 
       -0.899991 -0.787577 
       -0.999999 -0.614362 
       -0.9 -0.441154 
       -8.06519e-12 0.424871 
       0.1 0.598076 
       -0.1 0.598076 
       -4.9313e-05 0.771367 
       -0.199916 0.771307 
       -0.0984067 0.942726 
       0.0996468 0.944935 
       -0.300842 0.941759 
       -0.400035 0.771224 
       -0.50088 0.944789 
       -0.599998 0.771282 
       -0.699493 0.945333 
       -0.80002 0.771274 
       -0.900791 0.944639 
       -1.00122 0.771829 
       -0.900044 0.598096 
       0.399999 -1.30718 
       -0.600021 -0.960746 
       -1.10061 -0.787748 
       -1.00055 -0.961751 
       -1.10396 0.944688 
       -1.00152 1.11752 
       -0.398238 1.13883 
       -1.1 -0.441154 
       -0.999991 -0.267965 
       -1.10123 0.598853 
       1.10015 -0.441357 
       0.99999 -0.614334 
       1.10101 -0.0945568 
       1.10001 0.59825 
       1.0002 0.771279 
       0.800006 0.771295 
       0.899995 0.944492 
       1.10276 0.944062 
       0.999808 1.11764 
       0.799768 1.11761 
       0.000154995 1.1235 
       -1.19779 -0.964126 
       -1.11034 -1.14 
       1.1957 0.424548 
       0.3 -0.787564 
       -1.00001 0.424889 
       -0.8 0.424871 
       1.20215 1.11142 
       -1.18232 1.10602 
       -1.19989 -0.267574 
       1.19589 -0.613887 
       1.0998 -0.787647 
       -1.19668 0.425648 
       0.899955 -0.787565 
       1.00001 -0.960659 
       1.19883 -0.959888 
       1.0989 -1.13381 
       -0.8 -0.267949 
       0.198673 1.11816 
       -0.200003 -1.3072 
       1.09649 1.29222 
       -1.0891 1.29054 
       -0.90225 1.29386 
       0.10543 1.28953 
       0.294682 1.30446 
       -1.30149 -0.441941 
       1.30882 0.947643 
       -1.29324 0.934154 
       1.30814 1.28951 
       -1.28179 1.30668 
       1.29906 -1.13379 
       -1.30138 -1.1451 
       1.29345 -0.437416 
       1.20014 -1.30842 
       0.999912 -1.30731 
       0.3 0.598076 
       0.6 -0.267949 
       0.800002 -0.960771 
       -0.899989 -0.0947327 
       -0.7 -0.0947441 
       -1.18869 -1.30232 
       -1.01792 -1.31725 
       -0.989503 1.45638 
       1.39812 -0.95112 
       -1.40171 -0.977568 
       -1.39197 -0.267089 
       -1.30234 -0.0936855 
       1.39863 -1.31033 
       -1.36112 -1.25617 
       1.10035 -1.48054 
       -0.5 0.598076 
       0.299991 0.944458 
       -1.30196 0.602401 
       -1.40831 0.425183 
       -0.5 -0.441154 
       -0.2 0.424871 
       -0.118596 1.28665 
       1.40905 -0.624612 
       0.7 -0.787565 
       1.29992 0.599455 
       1.40856 0.423989 
       1.30261 0.247147 
       0.6 -0.960769 
       0.700001 -1.13397 
       -1.09996 0.251578 
       -1.09858 -1.4806 
       -0.923515 -1.49491 
       -0.797551 -1.30731 
       -0.700924 -1.48181 
       -0.599738 -1.30735 
       -0.500228 -1.48063 
       0.900003 -1.48041 
       -0.806815 1.45202 
       -1.50599 -0.458713 
       0.2147 1.47346 
       0.390549 1.45563 
       1.18658 1.45813 
       1.42297 1.45195 
       1.01154 1.45706 
       1.4886 0.254297 
       1.39864 0.0779041 
       1.62139 0.423421 
       1.50306 -0.434615 
       1.4069 -0.259293 
       -0.299985 -1.13398 
       0.503423 1.29674 
       0.59544 1.4309 
       -1.40727 -0.608101 
       -0.687766 1.29498 
       -0.605192 1.43941 
       -0.800013 0.078461 
       -0.6 0.078461 
       -0.5 -0.0947441 
       1.00013 -1.65359 
       -0.993272 -1.62559 
       -1.49385 0.593349 
       1.49973 1.29001 
       -1.48934 -0.0844918 
       -1.4 0.080728 
       1.56296 1.4782 
       -1.5753 0.0762223 
       1.09856 1.65786 
       -0.907793 1.64123 
       0.493486 1.63437 
       1.51362 1.66781 
       -1.07353 1.61943 
       0.939658 1.65781 
       -1.61783 0.421794 
       1.62787 -0.607622 
       -1.57535 -0.595784 
       -1.67278 -0.444665 
       1.56205 -0.240517 
       1.56641 0.0727962 
       1.20046 -1.6535 
       0.500001 -1.79793 
       0.600002 -1.65359 
       0.5 -1.48039 
       1.79504 0.327717 
       1.79254 0.497629 
       -0.29405 1.8105 
       -0.206871 1.65949 
       -0.384658 1.64209 
       -0.302321 1.40899 
       0.0125298 1.65807 
       -0.480862 1.81572 
       -0.100007 -1.79792 
       -0.20003 -1.65358 
       1.80584 -0.114555 
       0.0981339 1.80031 
       -1.7835 0.0777385 
       -0.700157 -1.13349 
       1.51527 -1.79802 
       1.61902 -1.66309 
       1.77515 -1.67022 
       1.71178 -1.48502 
       1.50425 -1.48314 
       1.62034 -1.31169 
       1.71839 -1.12647 
       1.50724 -1.13229 
       1.60035 -0.947021 
       1.49787 -0.77464 
       1.76757 1.51324 
       -1.53047 1.80764 
       -1.634 1.66915 
       -1.77618 1.67071 
       -1.72242 1.49085 
       -1.48478 1.4663 
       -1.61518 1.31227 
       -1.72191 1.10396 
       -1.52016 1.11893 
       -1.62555 0.949158 
       -1.80722 -1.5288 
       -1.67697 -1.64534 
       -1.67095 -1.77104 
       -1.51321 -1.72146 
       -1.47327 -1.47426 
       -1.28375 -1.6039 
       1.7923 0.899754 
       1.62101 0.796075 
       1.65677 0.977489 
       -1.79765 -0.922747 
       -1.79194 -1.09016 
       -1.66577 -1.16581 
       -1.63412 -0.998069 
       -1.68694 -1.39108 
       0.797499 1.43226 
       1.8043 1.06523 
       1.20124 0.0775184 
       0.899874 1.29045 
       -1.40988 1.64171 
       1.40073 -1.65397 
       -8.49809e-06 -1.65359 
       0.699999 0.598078 
       0.599999 0.77131 
       0.69993 0.944621 
       -0.7 0.598076 
       -0.6 0.424871 
       -0.4 0.424871 
       1.10031 0.25165 
       0.5 -0.0947441 
       0.4 -0.267949 
       0.5 -0.441154 
       0.3 -0.441154 
       -0.6 -0.267949 
       -1.20141 0.773465 
       0.3 -0.0947441 
       1.00005 0.0782757 
       0.6 0.424871 
       -1.10048 -0.0946666 
       0.199997 0.771276 
       1.20086 -0.266948 
       -0.199993 -0.960766 
       -0.3 -0.441154 
       -0.899503 -1.1306 
       1.50786 0.595987 
       -0.500217 -1.79781 
       1.79563 -0.932045 
       1.79051 -0.520274 
       -1.78635 0.917651 
       -1.79528 0.492385 
       0.7 -0.441154 
       -0.7 -0.441154 
       0.3 -1.13397 
       -1.3869 0.766903 
       -0.1 0.251666 
       0.899819 -1.13394 
       -0.399994 -0.960754 
       0.8 -0.614359 
       0.401047 1.11786 
       -0.203436 1.13739 
       -0.4 -0.267949 
       0.799982 -1.30717 
       -0.3 -0.0947441 
       1.30623 -0.790533 
       0.6 -0.614359 
       0.500001 0.598078 
       0.4 0.424871 
       -0.4 0.078461 
       -0.400009 -1.30726 
       -0.3 0.598076 
       0.2 -0.267949 
       0.2 -0.614359 
       0.4 -0.614359 
       0.5 -0.787564 
       -1.6061 -0.27185 
       -0.800138 -0.960942 
       1.49064 -0.0976505 
       -1.20081 -0.614793 
       1.30165 -0.0931728 
       -0.500035 -1.13395 
       1.19783 0.773473 
       -0.900018 0.251655 
       0.4 -0.960769 
       -0.798773 1.11831 
       -0.100015 -1.48039 
       1.39332 1.1014 
       1.30154 -1.48039 
       -1.17768 1.46237 
       0.400014 0.771291 
       0.500146 0.944533 
       1.40758 0.780347 
       0.499999 -1.13397 
       -0.3 0.251666 
       -0.597123 1.1249 
       -1.2918 -0.784051 
       0.599906 1.11832 
       -0.492174 1.29431 
       0.696866 1.29473 
       -1.50131 -0.78315 
       -1.00007 0.0784863 
       -0.5 0.251666 
       -1.2008 0.0781376 
       -1.30291 0.247844 
       -1.49241 0.256428 
       -0.400153 -1.65358 
       -0.7 0.251666 
       0.599998 -1.30718 
       -0.30008 -1.48043 
       -0.600792 -1.65375 
       -0.811224 -1.65427 
       -1.08209 -1.7938 
       -0.892227 -1.78877 
       0.700004 -1.48039 
       0.900005 -1.79792 
       1.10022 -1.79781 
       0.800011 -1.65359 
       -1.78979 -0.280035 
       0.203689 1.63358 
       0.0138892 1.44492 
       0.480248 1.8024 
       -1.07372 1.80926 
       -0.302849 1.30148 
       -0.905876 1.79672 
       -0.713624 1.60785 
       0.702649 1.57721 
       0.92453 1.80756 
       1.09255 1.78278 
       1.29742 1.64567 
       1.50333 1.79171 
       -1.59645 0.778049 
       1.66163 1.78568 
       1.65093 1.17235 
       -1.48376 -1.12996 
       1.48399 0.94151 
       -1.67366 -0.763149 
       1.66677 0.590976 
       -1.65798 0.579454 
       1.66301 -0.776856 
       1.66014 1.66024 
       1.66448 -0.395663 
       -1.82019 -0.476827 
       1.6421 0.250853 
       -1.64745 0.246573 
       -1.80493 1.50345 
       -1.51627 -1.80619 
       1.80295 -1.50303 
       1.63065 -0.0841967 
       -1.66698 -0.080791 
       -1.82366 1.09048 
       1.81645 -1.1193 
       -1.12878 -1.64135 
       -1.24021 -1.40178 
       -1.45142 0.922525 
       -1.35628 1.08958 
       -1.80519 -1.79519 
       1.79488 -1.80266 
       1.80122 1.80443 
       -1.79542 1.8028 
       -0.539836 1.64409 
       -0.170406 1.45448 
       0.320243 1.59803 
       -0.447904 1.42589 
       -1.43017 1.31151 
       -1.33945 1.47382 
       -1.25381 1.67316 
       1.62138 1.34428 
       -1.52485 -1.24687 
       1.52663 1.09566 
       -1.69443 -0.575384 
       1.67287 -0.208644 
        </DataArray>
      </PointData>
    <Cells>
      <DataArray type="Int32" Name="connectivity" Format="ascii">
       460 418 491 
       392 87 473 
       357 238 442 
       83 460 491 
       299 296 464 
       464 296 466 
       469 295 470 
       300 295 469 
       388 352 434 
       297 86 463 
       86 297 468 
       295 98 470 
       98 295 471 
       90 296 467 
       296 90 466 
       317 268 461 
       268 317 462 
       300 86 468 
       86 300 469 
       98 298 472 
       298 98 471 
       344 392 473 
       463 102 504 
       465 250 503 
       297 463 504 
       316 465 503 
       275 311 312 
       103 301 393 
       474 298 482 
       472 298 474 
       302 85 391 
       344 342 392 
       333 331 390 
       315 502 505 
       502 283 505 
       357 442 478 
       343 497 506 
       497 223 506 
       434 352 477 
       238 357 476 
       392 342 492 
       390 331 493 
       311 275 485 
       301 103 486 
       61 62 338 
       4 5 347 
       23 24 327 
       352 388 479 
       302 391 483 
       339 99 341 
       328 97 330 
       348 96 350 
       82 306 490 
       294 323 491 
       61 338 501 
       4 347 498 
       23 327 499 
       330 97 331 
       341 99 342 
       473 87 480 
       85 302 481 
       304 418 460 
       350 259 495 
       259 350 494 
       275 312 479 
       393 301 480 
       323 83 491 
       321 82 490 
       335 293 509 
       306 82 485 
       323 294 486 
       224 241 332 
       293 335 482 
       341 342 343 
       350 96 494 
       237 332 333 
       237 333 334 
       241 330 332 
       237 224 332 
       330 331 332 
       352 353 477 
       343 342 344 
       334 251 407 
       99 339 487 
       96 348 488 
       97 328 489 
       483 101 513 
       237 334 407 
       302 251 334 
       332 331 333 
       241 329 330 
       329 241 430 
       364 329 430 
       307 364 430 
       307 94 364 
       19 94 458 
       94 307 458 
       110 308 309 
       110 309 310 
       35 89 312 
       110 108 308 
       108 15 308 
       313 53 318 
       315 313 318 
       174 111 310 
       362 359 441 
       111 110 310 
       345 346 358 
       13 14 80 
       32 33 82 
       51 52 81 
       70 71 83 
       263 412 423 
       200 425 449 
       412 278 423 
       13 80 319 
       32 82 321 
       70 83 323 
       51 81 322 
       359 280 441 
       346 349 358 
       277 420 422 
       355 356 357 
       100 12 319 
       101 31 321 
       102 50 322 
       103 69 323 
       93 345 358 
       112 114 428 
       355 93 356 
       34 35 312 
       420 274 422 
       76 93 355 
       80 108 109 
       12 13 319 
       31 32 321 
       69 70 323 
       50 51 322 
       351 37 360 
       353 351 360 
       308 88 309 
       320 319 365 
       371 249 413 
       324 175 419 
       311 34 312 
       153 155 419 
       346 104 347 
       337 107 338 
       326 105 327 
       324 263 423 
       186 361 380 
       16 88 308 
       81 317 322 
       94 20 325 
       92 39 335 
       95 58 336 
       93 77 345 
       213 278 412 
       80 109 365 
       365 112 428 
       100 319 320 
       80 14 108 
       337 340 363 
       336 337 363 
       326 329 364 
       325 326 364 
       277 305 420 
       346 347 348 
       337 338 339 
       326 327 328 
       95 336 363 
       336 107 337 
       89 351 352 
       345 104 346 
       54 90 318 
       94 325 364 
       16 17 88 
       35 36 89 
       54 55 90 
       73 74 91 
       272 359 362 
       244 370 371 
       325 105 326 
       361 372 380 
       81 313 314 
       89 36 351 
       214 272 362 
       109 112 365 
       354 355 357 
       14 15 108 
       320 365 428 
       91 74 354 
       175 324 423 
       356 93 358 
       376 374 414 
       175 153 419 
       81 314 317 
       21 105 325 
       40 106 335 
       59 107 336 
       78 104 345 
       21 22 105 
       40 41 106 
       59 60 107 
       78 79 104 
       244 371 413 
       15 16 308 
       244 369 370 
       274 361 422 
       170 173 369 
       147 140 372 
       329 328 330 
       75 76 355 
       354 75 355 
       340 339 341 
       114 213 428 